LAMMPS data file from AMBER conversion
#Source: epon.prmtop, epon.pdb

53 atoms 
8 atom types 
54 bonds 
54 bond types 
94 angles 
94 angle types 
146 dihedrals 
146 dihedral types 

-2.355 25.056 xlo xhi 
-3.899 10.996 ylo yhi 
-10.975 4.01 zlo zhi 

Masses 

1 12.01 
2 1.008 
3 12.01 
4 1.008 
5 16.0 
6 1.008 
7 16.0 
8 1.008 
Atoms

1 1 1 0.0496565282 11.5790 4.5600 -3.0290 0 0 0
2 1 1 -0.0860434718 11.1510 5.7560 -3.9230 0 0 0
3 1 2 0.0394235282 10.8710 5.4160 -4.9240 0 0 0
4 1 2 0.0394235282 11.9480 6.4960 -4.0190 0 0 0
5 1 2 0.0394235282 10.2860 6.2670 -3.4920 0 0 0
6 1 3 -0.1052434718 10.2810 3.7510 -2.7720 0 0 0
7 1 3 -0.0924434718 9.7190 2.9810 -3.7980 0 0 0
8 1 4 0.1370565282 10.2540 2.8570 -4.7360 0 0 0
9 1 3 -0.1804434718 8.4450 2.4190 -3.6660 0 0 0
10 1 4 0.1430565282 8.0180 1.8560 -4.4920 0 0 0
11 1 3 0.1261565282 7.6930 2.6170 -2.5060 0 0 0
12 1 3 -0.1804434718 8.2630 3.3390 -1.4560 0 0 0
13 1 4 0.1430565282 7.7140 3.5030 -0.5340 0 0 0
14 1 3 -0.0924434718 9.5350 3.8980 -1.5900 0 0 0
15 1 4 0.1370565282 9.9040 4.4890 -0.7590 0 0 0
16 1 5 -0.3348434718 6.3930 2.1230 -2.4490 0 0 0
17 1 1 0.1284565282 5.3980 2.6060 -1.4970 0 0 0
18 1 6 0.0547565282 5.3590 3.6980 -1.5500 0 0 0
19 1 6 0.0547565282 5.7000 2.3060 -0.4900 0 0 0
20 1 1 0.1371565282 3.9970 2.0210 -1.8140 0 0 0
21 1 6 0.0547565282 4.0500 0.9300 -1.7740 0 0 0
22 1 7 -0.6037434696 3.0490 2.4810 -0.8330 0 0 0
23 1 8 0.4060565282 2.1450 2.1430 -1.0250 0 0 0
24 1 1 -0.1320434718 3.5140 2.4510 -3.2140 0 0 0
25 1 2 0.0474235282 4.1880 2.0750 -3.9860 0 0 0
26 1 2 0.0474235282 2.5160 2.0530 -3.4130 0 0 0
27 1 2 0.0474235282 3.4730 3.5400 -3.2920 0 0 0
28 1 1 -0.0860434718 12.1650 5.1800 -1.7310 0 0 0
29 1 2 0.0394235282 12.3580 4.4090 -0.9820 0 0 0
30 1 2 0.0394235282 13.1120 5.6850 -1.9400 0 0 0
31 1 2 0.0394235282 11.4920 5.9250 -1.2990 0 0 0
32 1 3 -0.1052434718 12.7370 3.7350 -3.6500 0 0 0
33 1 3 -0.0924434718 13.1080 2.5080 -3.0850 0 0 0
34 1 4 0.1370565282 12.5130 2.0790 -2.2830 0 0 0
35 1 3 -0.1804434718 14.2750 1.8500 -3.4890 0 0 0
36 1 4 0.1430565282 14.5580 0.9160 -3.0090 0 0 0
37 1 3 0.1261565282 15.1070 2.4030 -4.4640 0 0 0
38 1 3 -0.1804434718 14.7210 3.6000 -5.0690 0 0 0
39 1 4 0.1430565282 15.3360 4.0550 -5.8400 0 0 0
40 1 3 -0.0924434718 13.5570 4.2540 -4.6660 0 0 0
41 1 4 0.1370565282 13.3350 5.2050 -5.1390 0 0 0
42 1 5 -0.3348434718 16.3060 1.7660 -4.7730 0 0 0
43 1 1 0.1284565282 17.4120 2.4350 -5.4490 0 0 0
44 1 6 0.0547565282 17.6360 3.3670 -4.9220 0 0 0
45 1 6 0.0547565282 17.1110 2.6650 -6.4750 0 0 0
46 1 1 0.1371565282 18.6760 1.5360 -5.4690 0 0 0
47 1 6 0.0547565282 18.4370 0.6010 -5.9840 0 0 0
48 1 7 -0.6037434696 19.7340 2.2070 -6.1790 0 0 0
49 1 8 0.4060565282 20.5560 1.6660 -6.1870 0 0 0
50 1 1 -0.1320434718 19.1590 1.2150 -4.0410 0 0 0
51 1 2 0.0474235282 20.0630 0.6030 -4.0710 0 0 0
52 1 2 0.0474235282 19.3820 2.1330 -3.4920 0 0 0
53 1 2 0.0474235282 18.3950 0.6620 -3.4910 0 0 0

Bonds 

1 1 1 2
2 2 1 6
3 3 1 28
4 4 1 32
5 5 6 7
6 6 6 14
7 7 7 9
8 8 9 11
9 9 11 12
10 10 11 16
11 11 12 14
12 12 16 17
13 13 17 20
14 14 20 22
15 15 20 24
16 16 32 33
17 17 32 40
18 18 33 35
19 19 35 37
20 20 37 38
21 21 37 42
22 22 38 40
23 23 42 43
24 24 43 46
25 25 46 48
26 26 46 50
27 27 2 3
28 28 2 4
29 29 2 5
30 30 7 8
31 31 9 10
32 32 12 13
33 33 14 15
34 34 17 18
35 35 17 19
36 36 20 21
37 37 22 23
38 38 24 25
39 39 24 26
40 40 24 27
41 41 28 29
42 42 28 30
43 43 28 31
44 44 33 34
45 45 35 36
46 46 38 39
47 47 40 41
48 48 43 44
49 49 43 45
50 50 46 47
51 51 48 49
52 52 50 51
53 53 50 52
54 54 50 53

Angles 

1 1 1 6 7
2 2 1 6 14
3 3 1 32 33
4 4 1 32 40
5 5 2 1 6
6 6 2 1 28
7 7 2 1 32
8 8 6 1 28
9 9 6 1 32
10 10 6 7 9
11 11 6 14 12
12 12 7 6 14
13 13 7 9 11
14 14 9 11 12
15 15 9 11 16
16 16 11 12 14
17 17 11 16 17
18 18 12 11 16
19 19 16 17 20
20 20 17 20 22
21 21 17 20 24
22 22 22 20 24
23 23 28 1 32
24 24 32 33 35
25 25 32 40 38
26 26 33 32 40
27 27 33 35 37
28 28 35 37 38
29 29 35 37 42
30 30 37 38 40
31 31 37 42 43
32 32 38 37 42
33 33 42 43 46
34 34 43 46 48
35 35 43 46 50
36 36 48 46 50
37 37 1 2 3
38 38 1 2 4
39 39 1 2 5
40 40 1 28 29
41 41 1 28 30
42 42 1 28 31
43 43 3 2 4
44 44 3 2 5
45 45 4 2 5
46 46 6 7 8
47 47 6 14 15
48 48 7 9 10
49 49 8 7 9
50 50 10 9 11
51 51 11 12 13
52 52 12 14 15
53 53 13 12 14
54 54 16 17 18
55 55 16 17 19
56 56 17 20 21
57 57 18 17 19
58 58 18 17 20
59 59 19 17 20
60 60 20 22 23
61 61 20 24 25
62 62 20 24 26
63 63 20 24 27
64 64 21 20 22
65 65 21 20 24
66 66 25 24 26
67 67 25 24 27
68 68 26 24 27
69 69 29 28 30
70 70 29 28 31
71 71 30 28 31
72 72 32 33 34
73 73 32 40 41
74 74 33 35 36
75 75 34 33 35
76 76 36 35 37
77 77 37 38 39
78 78 38 40 41
79 79 39 38 40
80 80 42 43 44
81 81 42 43 45
82 82 43 46 47
83 83 44 43 45
84 84 44 43 46
85 85 45 43 46
86 86 46 48 49
87 87 46 50 51
88 88 46 50 52
89 89 46 50 53
90 90 47 46 48
91 91 47 46 50
92 92 51 50 52
93 93 51 50 53
94 94 52 50 53

Dihedrals 

1 1 1 6 7 9
2 2 1 6 14 12
3 3 1 32 33 35
4 4 1 32 40 38
5 5 2 1 6 7
6 6 2 1 6 14
7 7 2 1 32 33
8 8 2 1 32 40
9 9 6 1 32 33
10 10 6 1 32 40
11 11 6 7 9 11
12 12 6 14 12 11
13 13 28 1 6 7
14 14 32 1 6 7
15 15 7 6 14 12
16 16 7 9 11 12
17 17 7 9 11 16
18 18 9 7 6 14
19 19 9 11 12 14
20 20 9 11 16 17
21 21 11 16 17 20
22 22 12 11 16 17
23 23 28 1 6 14
24 24 32 1 6 14
25 25 14 12 11 16
26 26 16 17 20 22
27 27 16 17 20 24
28 28 28 1 32 33
29 29 28 1 32 40
30 30 32 33 35 37
31 31 32 40 38 37
32 32 33 32 40 38
33 33 33 35 37 38
34 34 33 35 37 42
35 35 35 33 32 40
36 36 35 37 38 40
37 37 35 37 42 43
38 38 37 42 43 46
39 39 38 37 42 43
40 40 40 38 37 42
41 41 42 43 46 48
42 42 42 43 46 50
43 43 1 6 14 7
44 44 1 33 32 40
45 45 1 6 7 8
46 46 1 6 14 15
47 47 1 32 33 34
48 48 1 32 40 41
49 49 2 1 28 29
50 50 2 1 28 30
51 51 2 1 28 31
52 52 6 1 2 3
53 53 28 1 2 3
54 54 32 1 2 3
55 55 6 1 2 4
56 56 28 1 2 4
57 57 32 1 2 4
58 58 6 1 2 5
59 59 28 1 2 5
60 60 32 1 2 5
61 61 6 1 28 29
62 62 6 1 28 30
63 63 6 1 28 31
64 64 6 7 9 10
65 65 6 14 12 13
66 66 7 6 14 15
67 67 8 7 6 14
68 68 8 7 9 10
69 69 8 7 9 11
70 70 9 11 12 13
71 71 10 9 11 12
72 72 10 9 11 16
73 73 11 12 14 15
74 74 11 16 17 18
75 75 11 16 17 19
76 76 13 12 11 16
77 77 13 12 14 15
78 78 16 17 20 21
79 79 16 17 20 21
80 80 17 20 22 23
81 81 17 20 24 25
82 82 17 20 24 26
83 83 17 20 24 27
84 84 18 17 20 21
85 85 18 17 20 22
86 86 18 17 20 22
87 87 18 17 20 24
88 88 19 17 20 21
89 89 19 17 20 22
90 90 19 17 20 22
91 91 19 17 20 24
92 92 21 20 22 23
93 93 21 20 24 25
94 94 21 20 24 26
95 95 21 20 24 27
96 96 22 20 24 25
97 97 22 20 24 26
98 98 22 20 24 27
99 99 23 22 20 24
100 100 32 1 28 29
101 101 32 1 28 30
102 102 32 1 28 31
103 103 32 33 35 36
104 104 32 40 38 39
105 105 33 32 40 41
106 106 34 33 32 40
107 107 34 33 35 36
108 108 34 33 35 37
109 109 35 37 38 39
110 110 36 35 37 38
111 111 36 35 37 42
112 112 37 38 40 41
113 113 37 42 43 44
114 114 37 42 43 45
115 115 39 38 37 42
116 116 39 38 40 41
117 117 42 43 46 47
118 118 42 43 46 47
119 119 43 46 48 49
120 120 43 46 50 51
121 121 43 46 50 52
122 122 43 46 50 53
123 123 44 43 46 47
124 124 44 43 46 48
125 125 44 43 46 48
126 126 44 43 46 50
127 127 45 43 46 47
128 128 45 43 46 48
129 129 45 43 46 48
130 130 45 43 46 50
131 131 47 46 48 49
132 132 47 46 50 51
133 133 47 46 50 52
134 134 47 46 50 53
135 135 48 46 50 51
136 136 48 46 50 52
137 137 48 46 50 53
138 138 49 48 46 50
139 139 6 9 7 8
140 140 7 11 9 10
141 141 11 14 12 13
142 142 6 12 14 15
143 143 32 35 33 34
144 144 33 37 35 36
145 145 37 40 38 39
146 146 32 38 40 41
