Untitled

53 atoms
54 bonds
94 angles
160 dihedrals
0 impropers

8 atom types
54 bond types
94 angle types
160 dihedral types

  2.1450000  72.1450000 xlo xhi
  0.6010000  70.6010000 ylo yhi
 -6.4750000  63.5250000 zlo zhi
  0.0000000   0.0000000   0.0000000 xy xz yz

Masses

1  12.0100000
2   1.0080000
3  12.0100000
4   1.0080000
5  16.0000000
6   1.0080000
7  16.0000000
8   1.0080000

Bond Coeffs

1 harmonic    3.00900000e+02    1.53800000e+00
2 harmonic    3.21000000e+02    1.51600000e+00
3 harmonic    3.00900000e+02    1.53800000e+00
4 harmonic    3.21000000e+02    1.51600000e+00
5 harmonic    3.30600000e+02    1.09700000e+00
6 harmonic    3.30600000e+02    1.09700000e+00
7 harmonic    3.30600000e+02    1.09700000e+00
8 harmonic    4.61100000e+02    1.39800000e+00
9 harmonic    4.61100000e+02    1.39800000e+00
10 harmonic    3.45800000e+02    1.08600000e+00
11 harmonic    4.61100000e+02    1.39800000e+00
12 harmonic    3.45800000e+02    1.08600000e+00
13 harmonic    4.61100000e+02    1.39800000e+00
14 harmonic    4.61100000e+02    1.39800000e+00
15 harmonic    3.76600000e+02    1.37000000e+00
16 harmonic    3.45800000e+02    1.08600000e+00
17 harmonic    4.61100000e+02    1.39800000e+00
18 harmonic    3.45800000e+02    1.08600000e+00
19 harmonic    3.08600000e+02    1.43200000e+00
20 harmonic    3.30600000e+02    1.09700000e+00
21 harmonic    3.30600000e+02    1.09700000e+00
22 harmonic    3.00900000e+02    1.53800000e+00
23 harmonic    3.30600000e+02    1.09700000e+00
24 harmonic    3.16700000e+02    1.42300000e+00
25 harmonic    3.00900000e+02    1.53800000e+00
26 harmonic    3.71400000e+02    9.73000000e-01
27 harmonic    3.30600000e+02    1.09700000e+00
28 harmonic    3.30600000e+02    1.09700000e+00
29 harmonic    3.30600000e+02    1.09700000e+00
30 harmonic    3.30600000e+02    1.09700000e+00
31 harmonic    3.30600000e+02    1.09700000e+00
32 harmonic    3.30600000e+02    1.09700000e+00
33 harmonic    4.61100000e+02    1.39800000e+00
34 harmonic    4.61100000e+02    1.39800000e+00
35 harmonic    3.45800000e+02    1.08600000e+00
36 harmonic    4.61100000e+02    1.39800000e+00
37 harmonic    3.45800000e+02    1.08600000e+00
38 harmonic    4.61100000e+02    1.39800000e+00
39 harmonic    4.61100000e+02    1.39800000e+00
40 harmonic    3.76600000e+02    1.37000000e+00
41 harmonic    3.45800000e+02    1.08600000e+00
42 harmonic    4.61100000e+02    1.39800000e+00
43 harmonic    3.45800000e+02    1.08600000e+00
44 harmonic    3.08600000e+02    1.43200000e+00
45 harmonic    3.30600000e+02    1.09700000e+00
46 harmonic    3.30600000e+02    1.09700000e+00
47 harmonic    3.00900000e+02    1.53800000e+00
48 harmonic    3.30600000e+02    1.09700000e+00
49 harmonic    3.16700000e+02    1.42300000e+00
50 harmonic    3.00900000e+02    1.53800000e+00
51 harmonic    3.71400000e+02    9.73000000e-01
52 harmonic    3.30600000e+02    1.09700000e+00
53 harmonic    3.30600000e+02    1.09700000e+00
54 harmonic    3.30600000e+02    1.09700000e+00

Angle Coeffs

1 harmonic    4.63000000e+01    1.09800047e+02
2 harmonic    4.63000000e+01    1.09800047e+02
3 harmonic    4.63000000e+01    1.09800047e+02
4 harmonic    6.35000000e+01    1.20770052e+02
5 harmonic    6.35000000e+01    1.20770052e+02
6 harmonic    4.63000000e+01    1.09800047e+02
7 harmonic    4.63000000e+01    1.09800047e+02
8 harmonic    4.63000000e+01    1.09800047e+02
9 harmonic    6.35000000e+01    1.20770052e+02
10 harmonic    6.35000000e+01    1.20770052e+02
11 harmonic    6.31000000e+01    1.12070048e+02
12 harmonic    6.29000000e+01    1.11510048e+02
13 harmonic    6.31000000e+01    1.12070048e+02
14 harmonic    3.94000000e+01    1.07580046e+02
15 harmonic    3.94000000e+01    1.07580046e+02
16 harmonic    3.94000000e+01    1.07580046e+02
17 harmonic    6.31000000e+01    1.12070048e+02
18 harmonic    6.36000000e+01    1.12240048e+02
19 harmonic    4.82000000e+01    1.19880051e+02
20 harmonic    6.66000000e+01    1.20020052e+02
21 harmonic    6.66000000e+01    1.20020052e+02
22 harmonic    4.82000000e+01    1.19880051e+02
23 harmonic    6.66000000e+01    1.20020052e+02
24 harmonic    4.82000000e+01    1.19880051e+02
25 harmonic    6.66000000e+01    1.20020052e+02
26 harmonic    4.82000000e+01    1.19880051e+02
27 harmonic    6.66000000e+01    1.20020052e+02
28 harmonic    6.96000000e+01    1.19200051e+02
29 harmonic    4.82000000e+01    1.19880051e+02
30 harmonic    4.82000000e+01    1.19880051e+02
31 harmonic    6.66000000e+01    1.20020052e+02
32 harmonic    6.25000000e+01    1.17960051e+02
33 harmonic    6.96000000e+01    1.19200051e+02
34 harmonic    4.82000000e+01    1.19880051e+02
35 harmonic    4.82000000e+01    1.19880051e+02
36 harmonic    5.08000000e+01    1.09780047e+02
37 harmonic    5.08000000e+01    1.09780047e+02
38 harmonic    6.80000000e+01    1.07970046e+02
39 harmonic    4.64000000e+01    1.09560047e+02
40 harmonic    6.75000000e+01    1.10190047e+02
41 harmonic    6.29000000e+01    1.11510048e+02
42 harmonic    3.92000000e+01    1.08460047e+02
43 harmonic    4.64000000e+01    1.09560047e+02
44 harmonic    4.64000000e+01    1.09560047e+02
45 harmonic    4.74000000e+01    1.07260046e+02
46 harmonic    4.63000000e+01    1.09800047e+02
47 harmonic    4.63000000e+01    1.09800047e+02
48 harmonic    4.63000000e+01    1.09800047e+02
49 harmonic    5.09000000e+01    1.10260047e+02
50 harmonic    4.64000000e+01    1.09560047e+02
51 harmonic    6.75000000e+01    1.10190047e+02
52 harmonic    3.94000000e+01    1.07580046e+02
53 harmonic    3.94000000e+01    1.07580046e+02
54 harmonic    3.94000000e+01    1.07580046e+02
55 harmonic    6.31000000e+01    1.12070048e+02
56 harmonic    3.94000000e+01    1.07580046e+02
57 harmonic    3.94000000e+01    1.07580046e+02
58 harmonic    3.94000000e+01    1.07580046e+02
59 harmonic    4.82000000e+01    1.19880051e+02
60 harmonic    6.66000000e+01    1.20020052e+02
61 harmonic    6.66000000e+01    1.20020052e+02
62 harmonic    4.82000000e+01    1.19880051e+02
63 harmonic    6.66000000e+01    1.20020052e+02
64 harmonic    4.82000000e+01    1.19880051e+02
65 harmonic    6.66000000e+01    1.20020052e+02
66 harmonic    4.82000000e+01    1.19880051e+02
67 harmonic    6.66000000e+01    1.20020052e+02
68 harmonic    6.96000000e+01    1.19200051e+02
69 harmonic    4.82000000e+01    1.19880051e+02
70 harmonic    4.82000000e+01    1.19880051e+02
71 harmonic    6.66000000e+01    1.20020052e+02
72 harmonic    6.25000000e+01    1.17960051e+02
73 harmonic    6.96000000e+01    1.19200051e+02
74 harmonic    4.82000000e+01    1.19880051e+02
75 harmonic    4.82000000e+01    1.19880051e+02
76 harmonic    5.08000000e+01    1.09780047e+02
77 harmonic    5.08000000e+01    1.09780047e+02
78 harmonic    6.80000000e+01    1.07970046e+02
79 harmonic    4.64000000e+01    1.09560047e+02
80 harmonic    6.75000000e+01    1.10190047e+02
81 harmonic    6.29000000e+01    1.11510048e+02
82 harmonic    3.92000000e+01    1.08460047e+02
83 harmonic    4.64000000e+01    1.09560047e+02
84 harmonic    4.64000000e+01    1.09560047e+02
85 harmonic    4.74000000e+01    1.07260046e+02
86 harmonic    4.63000000e+01    1.09800047e+02
87 harmonic    4.63000000e+01    1.09800047e+02
88 harmonic    4.63000000e+01    1.09800047e+02
89 harmonic    5.09000000e+01    1.10260047e+02
90 harmonic    4.64000000e+01    1.09560047e+02
91 harmonic    6.75000000e+01    1.10190047e+02
92 harmonic    3.94000000e+01    1.07580046e+02
93 harmonic    3.94000000e+01    1.07580046e+02
94 harmonic    3.94000000e+01    1.07580046e+02

Dihedral Coeffs

1 charmm    3.62500000e+00         2       180         0
2 charmm    3.62500000e+00         2       180         0
3 charmm    3.62500000e+00         2       180         0
4 charmm    3.62500000e+00         2       180         0
5 charmm    1.10000000e+00         2       180         0
6 charmm    3.62500000e+00         2       180         0
7 charmm    3.62500000e+00         2       180         0
8 charmm    3.62500000e+00         2       180         0
9 charmm    3.62500000e+00         2       180         0
10 charmm    1.10000000e+00         2       180         0
11 multi/harmonic    0.00000000e+00    0.00000000e+00    0.00000000e+00    0.00000000e+00    0.00000000e+00
12 multi/harmonic    0.00000000e+00    0.00000000e+00    0.00000000e+00    0.00000000e+00    0.00000000e+00
13 multi/harmonic    1.60000000e-01   -4.80000000e-01    0.00000000e+00    6.40000000e-01    0.00000000e+00
14 multi/harmonic    1.60000000e-01   -4.80000000e-01    0.00000000e+00    6.40000000e-01    0.00000000e+00
15 multi/harmonic    1.60000000e-01   -4.80000000e-01    0.00000000e+00    6.40000000e-01    0.00000000e+00
16 multi/harmonic    0.00000000e+00    0.00000000e+00    0.00000000e+00    0.00000000e+00    0.00000000e+00
17 multi/harmonic    0.00000000e+00    0.00000000e+00    0.00000000e+00    0.00000000e+00    0.00000000e+00
18 multi/harmonic    1.55555545e-01   -4.66666635e-01    0.00000000e+00    6.22222180e-01    0.00000000e+00
19 multi/harmonic    1.55555545e-01   -4.66666635e-01    0.00000000e+00    6.22222180e-01    0.00000000e+00
20 multi/harmonic    1.55555545e-01   -4.66666635e-01    0.00000000e+00    6.22222180e-01    0.00000000e+00
21 multi/harmonic    1.55555545e-01   -4.66666635e-01    0.00000000e+00    6.22222180e-01    0.00000000e+00
22 multi/harmonic    1.55555545e-01   -4.66666635e-01    0.00000000e+00    6.22222180e-01    0.00000000e+00
23 multi/harmonic    1.55555545e-01   -4.66666635e-01    0.00000000e+00    6.22222180e-01    0.00000000e+00
24 multi/harmonic    0.00000000e+00    0.00000000e+00    0.00000000e+00    0.00000000e+00    0.00000000e+00
25 multi/harmonic    0.00000000e+00    0.00000000e+00    0.00000000e+00    0.00000000e+00    0.00000000e+00
26 charmm    3.62500000e+00         2       180         0
27 charmm    3.62500000e+00         2       180         0
28 charmm    1.10000000e+00         2       180         0
29 charmm    1.10000000e+00         2       180         0
30 charmm    3.62500000e+00         2       180         0
31 charmm    3.62500000e+00         2       180         0
32 charmm    3.62500000e+00         2       180         0
33 charmm    3.62500000e+00         2       180         0
34 charmm    3.62500000e+00         2       180         0
35 charmm    3.62500000e+00         2       180         0
36 charmm    1.10000000e+00         2       180         0
37 charmm    3.62500000e+00         2       180         0
38 charmm    3.62500000e+00         2       180         0
39 charmm    3.62500000e+00         2       180         0
40 charmm    3.62500000e+00         2       180         0
41 charmm    3.62500000e+00         2       180         0
42 charmm    3.62500000e+00         2       180         0
43 charmm    9.00000000e-01         2       180         0
44 charmm    1.10000000e+00         2       180         0
45 charmm    3.62500000e+00         2       180         0
46 charmm    3.62500000e+00         2       180         0
47 charmm    3.62500000e+00         2       180         0
48 charmm    1.10000000e+00         2       180         0
49 multi/harmonic    3.83333341e-01   -1.15000002e+00    0.00000000e+00    1.53333337e+00    0.00000000e+00
50 multi/harmonic    3.83333341e-01   -1.15000002e+00    0.00000000e+00    1.53333337e+00    0.00000000e+00
51 multi/harmonic    3.83333341e-01   -1.15000002e+00    0.00000000e+00    1.53333337e+00    0.00000000e+00
52 charmm    9.00000000e-01         2       180         0
53 charmm    3.62500000e+00         2       180         0
54 charmm    3.62500000e+00         2       180         0
55 charmm    3.62500000e+00         2       180         0
56 multi/harmonic    2.50000000e-01    2.50000000e-01    0.00000000e+00    0.00000000e+00    0.00000000e+00
57 multi/harmonic    0.00000000e+00    0.00000000e+00    0.00000000e+00    0.00000000e+00    0.00000000e+00
58 multi/harmonic    0.00000000e+00    0.00000000e+00    2.35000000e+00    0.00000000e+00    0.00000000e+00
59 multi/harmonic    1.44000000e-01   -4.32000000e-01    0.00000000e+00    5.76000000e-01    0.00000000e+00
60 multi/harmonic    1.55555545e-01   -4.66666635e-01    0.00000000e+00    6.22222180e-01    0.00000000e+00
61 multi/harmonic    2.50000000e-01    2.50000000e-01    0.00000000e+00    0.00000000e+00    0.00000000e+00
62 multi/harmonic    1.60000000e-01   -4.80000000e-01    0.00000000e+00    6.40000000e-01    0.00000000e+00
63 multi/harmonic    1.60000000e-01   -4.80000000e-01    0.00000000e+00    6.40000000e-01    0.00000000e+00
64 multi/harmonic    1.60000000e-01   -4.80000000e-01    0.00000000e+00    6.40000000e-01    0.00000000e+00
65 multi/harmonic    1.60000000e-01   -4.80000000e-01    0.00000000e+00    6.40000000e-01    0.00000000e+00
66 multi/harmonic    1.55555545e-01   -4.66666635e-01    0.00000000e+00    6.22222180e-01    0.00000000e+00
67 multi/harmonic    2.50000000e-01    2.50000000e-01    0.00000000e+00    0.00000000e+00    0.00000000e+00
68 multi/harmonic    0.00000000e+00    0.00000000e+00    0.00000000e+00    0.00000000e+00    0.00000000e+00
69 multi/harmonic    1.55555545e-01   -4.66666635e-01    0.00000000e+00    6.22222180e-01    0.00000000e+00
70 multi/harmonic    1.55555545e-01   -4.66666635e-01    0.00000000e+00    6.22222180e-01    0.00000000e+00
71 multi/harmonic    2.50000000e-01    2.50000000e-01    0.00000000e+00    0.00000000e+00    0.00000000e+00
72 multi/harmonic    0.00000000e+00    0.00000000e+00    0.00000000e+00    0.00000000e+00    0.00000000e+00
73 multi/harmonic    1.55555545e-01   -4.66666635e-01    0.00000000e+00    6.22222180e-01    0.00000000e+00
74 multi/harmonic    1.66666659e-01   -4.99999976e-01    0.00000000e+00    6.66666635e-01    0.00000000e+00
75 multi/harmonic    1.55555545e-01   -4.66666635e-01    0.00000000e+00    6.22222180e-01    0.00000000e+00
76 multi/harmonic    1.55555545e-01   -4.66666635e-01    0.00000000e+00    6.22222180e-01    0.00000000e+00
77 multi/harmonic    1.55555545e-01   -4.66666635e-01    0.00000000e+00    6.22222180e-01    0.00000000e+00
78 multi/harmonic    2.50000000e-01    2.50000000e-01    0.00000000e+00    0.00000000e+00    0.00000000e+00
79 multi/harmonic    0.00000000e+00    0.00000000e+00    0.00000000e+00    0.00000000e+00    0.00000000e+00
80 multi/harmonic    2.50000000e-01    2.50000000e-01    0.00000000e+00    0.00000000e+00    0.00000000e+00
81 multi/harmonic    0.00000000e+00    0.00000000e+00    0.00000000e+00    0.00000000e+00    0.00000000e+00
82 multi/harmonic    2.50000000e-01    2.50000000e-01    0.00000000e+00    0.00000000e+00    0.00000000e+00
83 multi/harmonic    0.00000000e+00    0.00000000e+00    0.00000000e+00    0.00000000e+00    0.00000000e+00
84 multi/harmonic    2.50000000e-01    2.50000000e-01    0.00000000e+00    0.00000000e+00    0.00000000e+00
85 multi/harmonic    1.60000000e-01   -4.80000000e-01    0.00000000e+00    6.40000000e-01    0.00000000e+00
86 multi/harmonic    1.60000000e-01   -4.80000000e-01    0.00000000e+00    6.40000000e-01    0.00000000e+00
87 multi/harmonic    1.60000000e-01   -4.80000000e-01    0.00000000e+00    6.40000000e-01    0.00000000e+00
88 multi/harmonic    1.60000000e-01   -4.80000000e-01    0.00000000e+00    6.40000000e-01    0.00000000e+00
89 multi/harmonic    0.00000000e+00    0.00000000e+00    0.00000000e+00    0.00000000e+00    0.00000000e+00
90 multi/harmonic    0.00000000e+00    0.00000000e+00    0.00000000e+00    0.00000000e+00    0.00000000e+00
91 multi/harmonic    0.00000000e+00    0.00000000e+00    0.00000000e+00    0.00000000e+00    0.00000000e+00
92 multi/harmonic    0.00000000e+00    0.00000000e+00    0.00000000e+00    0.00000000e+00    0.00000000e+00
93 multi/harmonic    1.55555545e-01   -4.66666635e-01    0.00000000e+00    6.22222180e-01    0.00000000e+00
94 multi/harmonic    1.55555545e-01   -4.66666635e-01    0.00000000e+00    6.22222180e-01    0.00000000e+00
95 multi/harmonic    1.55555545e-01   -4.66666635e-01    0.00000000e+00    6.22222180e-01    0.00000000e+00
96 multi/harmonic    0.00000000e+00    0.00000000e+00    0.00000000e+00    0.00000000e+00    0.00000000e+00
97 multi/harmonic    0.00000000e+00    0.00000000e+00    0.00000000e+00    0.00000000e+00    0.00000000e+00
98 multi/harmonic    1.55555545e-01   -4.66666635e-01    0.00000000e+00    6.22222180e-01    0.00000000e+00
99 multi/harmonic    1.55555545e-01   -4.66666635e-01    0.00000000e+00    6.22222180e-01    0.00000000e+00
100 multi/harmonic    1.55555545e-01   -4.66666635e-01    0.00000000e+00    6.22222180e-01    0.00000000e+00
101 charmm    3.62500000e+00         2       180         0
102 charmm    3.62500000e+00         2       180         0
103 charmm    1.10000000e+00         2       180         0
104 charmm    1.10000000e+00         2       180         0
105 charmm    3.62500000e+00         2       180         0
106 charmm    3.62500000e+00         2       180         0
107 charmm    3.62500000e+00         2       180         0
108 charmm    3.62500000e+00         2       180         0
109 charmm    3.62500000e+00         2       180         0
110 charmm    3.62500000e+00         2       180         0
111 charmm    1.10000000e+00         2       180         0
112 charmm    3.62500000e+00         2       180         0
113 charmm    3.62500000e+00         2       180         0
114 charmm    3.62500000e+00         2       180         0
115 charmm    3.62500000e+00         2       180         0
116 charmm    3.62500000e+00         2       180         0
117 charmm    3.62500000e+00         2       180         0
118 charmm    9.00000000e-01         2       180         0
119 charmm    1.10000000e+00         2       180         0
120 charmm    3.62500000e+00         2       180         0
121 charmm    3.62500000e+00         2       180         0
122 charmm    3.62500000e+00         2       180         0
123 charmm    1.10000000e+00         2       180         0
124 multi/harmonic    3.83333341e-01   -1.15000002e+00    0.00000000e+00    1.53333337e+00    0.00000000e+00
125 multi/harmonic    3.83333341e-01   -1.15000002e+00    0.00000000e+00    1.53333337e+00    0.00000000e+00
126 multi/harmonic    3.83333341e-01   -1.15000002e+00    0.00000000e+00    1.53333337e+00    0.00000000e+00
127 charmm    9.00000000e-01         2       180         0
128 charmm    3.62500000e+00         2       180         0
129 charmm    3.62500000e+00         2       180         0
130 charmm    3.62500000e+00         2       180         0
131 multi/harmonic    2.50000000e-01    2.50000000e-01    0.00000000e+00    0.00000000e+00    0.00000000e+00
132 multi/harmonic    0.00000000e+00    0.00000000e+00    0.00000000e+00    0.00000000e+00    0.00000000e+00
133 multi/harmonic    0.00000000e+00    0.00000000e+00    2.35000000e+00    0.00000000e+00    0.00000000e+00
134 multi/harmonic    1.44000000e-01   -4.32000000e-01    0.00000000e+00    5.76000000e-01    0.00000000e+00
135 multi/harmonic    1.55555545e-01   -4.66666635e-01    0.00000000e+00    6.22222180e-01    0.00000000e+00
136 multi/harmonic    2.50000000e-01    2.50000000e-01    0.00000000e+00    0.00000000e+00    0.00000000e+00
137 multi/harmonic    1.60000000e-01   -4.80000000e-01    0.00000000e+00    6.40000000e-01    0.00000000e+00
138 multi/harmonic    1.60000000e-01   -4.80000000e-01    0.00000000e+00    6.40000000e-01    0.00000000e+00
139 multi/harmonic    1.60000000e-01   -4.80000000e-01    0.00000000e+00    6.40000000e-01    0.00000000e+00
140 multi/harmonic    1.60000000e-01   -4.80000000e-01    0.00000000e+00    6.40000000e-01    0.00000000e+00
141 multi/harmonic    1.55555545e-01   -4.66666635e-01    0.00000000e+00    6.22222180e-01    0.00000000e+00
142 multi/harmonic    2.50000000e-01    2.50000000e-01    0.00000000e+00    0.00000000e+00    0.00000000e+00
143 multi/harmonic    0.00000000e+00    0.00000000e+00    0.00000000e+00    0.00000000e+00    0.00000000e+00
144 multi/harmonic    1.55555545e-01   -4.66666635e-01    0.00000000e+00    6.22222180e-01    0.00000000e+00
145 multi/harmonic    1.55555545e-01   -4.66666635e-01    0.00000000e+00    6.22222180e-01    0.00000000e+00
146 multi/harmonic    2.50000000e-01    2.50000000e-01    0.00000000e+00    0.00000000e+00    0.00000000e+00
147 multi/harmonic    0.00000000e+00    0.00000000e+00    0.00000000e+00    0.00000000e+00    0.00000000e+00
148 multi/harmonic    1.55555545e-01   -4.66666635e-01    0.00000000e+00    6.22222180e-01    0.00000000e+00
149 multi/harmonic    1.66666659e-01   -4.99999976e-01    0.00000000e+00    6.66666635e-01    0.00000000e+00
150 multi/harmonic    1.55555545e-01   -4.66666635e-01    0.00000000e+00    6.22222180e-01    0.00000000e+00
151 multi/harmonic    1.55555545e-01   -4.66666635e-01    0.00000000e+00    6.22222180e-01    0.00000000e+00
152 multi/harmonic    1.55555545e-01   -4.66666635e-01    0.00000000e+00    6.22222180e-01    0.00000000e+00
153 multi/harmonic    2.50000000e-01    2.50000000e-01    0.00000000e+00    0.00000000e+00    0.00000000e+00
154 multi/harmonic    0.00000000e+00    0.00000000e+00    0.00000000e+00    0.00000000e+00    0.00000000e+00
155 multi/harmonic    2.50000000e-01    2.50000000e-01    0.00000000e+00    0.00000000e+00    0.00000000e+00
156 multi/harmonic    0.00000000e+00    0.00000000e+00    0.00000000e+00    0.00000000e+00    0.00000000e+00
157 multi/harmonic    2.50000000e-01    2.50000000e-01    0.00000000e+00    0.00000000e+00    0.00000000e+00
158 multi/harmonic    0.00000000e+00    0.00000000e+00    0.00000000e+00    0.00000000e+00    0.00000000e+00
159 multi/harmonic    1.60000000e-01   -4.80000000e-01    0.00000000e+00    6.40000000e-01    0.00000000e+00
160 multi/harmonic    2.50000000e-01    2.50000000e-01    0.00000000e+00    0.00000000e+00    0.00000000e+00

Atoms

     1      1      1 0.04960000   11.5790000    4.5600000   -3.0290000
     2      1      1 -0.08610000   11.1510000    5.7560000   -3.9230000
     3      1      2 0.03936700   10.8710000    5.4160000   -4.9240000
     4      1      2 0.03936700   11.9480000    6.4960000   -4.0190000
     5      1      2 0.03936700   10.2860000    6.2670000   -3.4920000
     6      1      3 -0.10530000   10.2810000    3.7510000   -2.7720000
     7      1      3 -0.09250000    9.7190000    2.9810000   -3.7980000
     8      1      4 0.13700000   10.2540000    2.8570000   -4.7360000
     9      1      3 -0.18050000    8.4450000    2.4190000   -3.6660000
    10      1      4 0.14300000    8.0180000    1.8560000   -4.4920000
    11      1      3 0.12610000    7.6930000    2.6170000   -2.5060000
    12      1      3 -0.18050000    8.2630000    3.3390000   -1.4560000
    13      1      4 0.14300000    7.7140000    3.5030000   -0.5340000
    14      1      3 -0.09250000    9.5350000    3.8980000   -1.5900000
    15      1      4 0.13700000    9.9040000    4.4890000   -0.7590000
    16      1      5 -0.33490000    6.3930000    2.1230000   -2.4490000
    17      1      1 0.12840000    5.3980000    2.6060000   -1.4970000
    18      1      6 0.05470000    5.3590000    3.6980000   -1.5500000
    19      1      6 0.05470000    5.7000000    2.3060000   -0.4900000
    20      1      1 0.13710000    3.9970000    2.0210000   -1.8140000
    21      1      6 0.05470000    4.0500000    0.9300000   -1.7740000
    22      1      7 -0.60380000    3.0490000    2.4810000   -0.8330000
    23      1      8 0.40600000    2.1450000    2.1430000   -1.0250000
    24      1      1 -0.13210000    3.5140000    2.4510000   -3.2140000
    25      1      2 0.04736700    4.1880000    2.0750000   -3.9860000
    26      1      2 0.04736700    2.5160000    2.0530000   -3.4130000
    27      1      2 0.04736700    3.4730000    3.5400000   -3.2920000
    28      1      1 -0.08610000   12.1650000    5.1800000   -1.7310000
    29      1      2 0.03936700   12.3580000    4.4090000   -0.9820000
    30      1      2 0.03936700   13.1120000    5.6850000   -1.9400000
    31      1      2 0.03936700   11.4920000    5.9250000   -1.2990000
    32      1      3 -0.10530000   12.7370000    3.7350000   -3.6500000
    33      1      3 -0.09250000   13.1080000    2.5080000   -3.0850000
    34      1      4 0.13700000   12.5130000    2.0790000   -2.2830000
    35      1      3 -0.18050000   14.2750000    1.8500000   -3.4890000
    36      1      4 0.14300000   14.5580000    0.9160000   -3.0090000
    37      1      3 0.12610000   15.1070000    2.4030000   -4.4640000
    38      1      3 -0.18050000   14.7210000    3.6000000   -5.0690000
    39      1      4 0.14300000   15.3360000    4.0550000   -5.8400000
    40      1      3 -0.09250000   13.5570000    4.2540000   -4.6660000
    41      1      4 0.13700000   13.3350000    5.2050000   -5.1390000
    42      1      5 -0.33490000   16.3060000    1.7660000   -4.7730000
    43      1      1 0.12840000   17.4120000    2.4350000   -5.4490000
    44      1      6 0.05470000   17.6360000    3.3670000   -4.9220000
    45      1      6 0.05470000   17.1110000    2.6650000   -6.4750000
    46      1      1 0.13710000   18.6760000    1.5360000   -5.4690000
    47      1      6 0.05470000   18.4370000    0.6010000   -5.9840000
    48      1      7 -0.60380000   19.7340000    2.2070000   -6.1790000
    49      1      8 0.40600000   20.5560000    1.6660000   -6.1870000
    50      1      1 -0.13210000   19.1590000    1.2150000   -4.0410000
    51      1      2 0.04736700   20.0630000    0.6030000   -4.0710000
    52      1      2 0.04736700   19.3820000    2.1330000   -3.4920000
    53      1      2 0.04736700   18.3950000    0.6620000   -3.4910000

Velocities

     1   0.0000000   0.0000000   0.0000000
     2   0.0000000   0.0000000   0.0000000
     3   0.0000000   0.0000000   0.0000000
     4   0.0000000   0.0000000   0.0000000
     5   0.0000000   0.0000000   0.0000000
     6   0.0000000   0.0000000   0.0000000
     7   0.0000000   0.0000000   0.0000000
     8   0.0000000   0.0000000   0.0000000
     9   0.0000000   0.0000000   0.0000000
    10   0.0000000   0.0000000   0.0000000
    11   0.0000000   0.0000000   0.0000000
    12   0.0000000   0.0000000   0.0000000
    13   0.0000000   0.0000000   0.0000000
    14   0.0000000   0.0000000   0.0000000
    15   0.0000000   0.0000000   0.0000000
    16   0.0000000   0.0000000   0.0000000
    17   0.0000000   0.0000000   0.0000000
    18   0.0000000   0.0000000   0.0000000
    19   0.0000000   0.0000000   0.0000000
    20   0.0000000   0.0000000   0.0000000
    21   0.0000000   0.0000000   0.0000000
    22   0.0000000   0.0000000   0.0000000
    23   0.0000000   0.0000000   0.0000000
    24   0.0000000   0.0000000   0.0000000
    25   0.0000000   0.0000000   0.0000000
    26   0.0000000   0.0000000   0.0000000
    27   0.0000000   0.0000000   0.0000000
    28   0.0000000   0.0000000   0.0000000
    29   0.0000000   0.0000000   0.0000000
    30   0.0000000   0.0000000   0.0000000
    31   0.0000000   0.0000000   0.0000000
    32   0.0000000   0.0000000   0.0000000
    33   0.0000000   0.0000000   0.0000000
    34   0.0000000   0.0000000   0.0000000
    35   0.0000000   0.0000000   0.0000000
    36   0.0000000   0.0000000   0.0000000
    37   0.0000000   0.0000000   0.0000000
    38   0.0000000   0.0000000   0.0000000
    39   0.0000000   0.0000000   0.0000000
    40   0.0000000   0.0000000   0.0000000
    41   0.0000000   0.0000000   0.0000000
    42   0.0000000   0.0000000   0.0000000
    43   0.0000000   0.0000000   0.0000000
    44   0.0000000   0.0000000   0.0000000
    45   0.0000000   0.0000000   0.0000000
    46   0.0000000   0.0000000   0.0000000
    47   0.0000000   0.0000000   0.0000000
    48   0.0000000   0.0000000   0.0000000
    49   0.0000000   0.0000000   0.0000000
    50   0.0000000   0.0000000   0.0000000
    51   0.0000000   0.0000000   0.0000000
    52   0.0000000   0.0000000   0.0000000
    53   0.0000000   0.0000000   0.0000000

Bonds

     1      1 1 2
     2      2 1 6
     3      3 1 28
     4      4 1 32
     5      5 2 3
     6      6 2 4
     7      7 2 5
     8      8 6 7
     9      9 6 14
    10     10 7 8
    11     11 7 9
    12     12 9 10
    13     13 9 11
    14     14 11 12
    15     15 11 16
    16     16 12 13
    17     17 12 14
    18     18 14 15
    19     19 16 17
    20     20 17 18
    21     21 17 19
    22     22 17 20
    23     23 20 21
    24     24 20 22
    25     25 20 24
    26     26 22 23
    27     27 24 25
    28     28 24 26
    29     29 24 27
    30     30 28 29
    31     31 28 30
    32     32 28 31
    33     33 32 33
    34     34 32 40
    35     35 33 34
    36     36 33 35
    37     37 35 36
    38     38 35 37
    39     39 37 38
    40     40 37 42
    41     41 38 39
    42     42 38 40
    43     43 40 41
    44     44 42 43
    45     45 43 44
    46     46 43 45
    47     47 43 46
    48     48 46 47
    49     49 46 48
    50     50 46 50
    51     51 48 49
    52     52 50 51
    53     53 50 52
    54     54 50 53

Angles

     1      1 1 2 3
     2      2 1 2 4
     3      3 1 2 5
     4      4 1 6 7
     5      5 1 6 14
     6      6 1 28 29
     7      7 1 28 30
     8      8 1 28 31
     9      9 1 32 33
    10     10 1 32 40
    11     11 2 1 6
    12     12 2 1 28
    13     13 2 1 32
    14     14 3 2 4
    15     15 3 2 5
    16     16 4 2 5
    17     17 6 1 28
    18     18 6 1 32
    19     19 6 7 8
    20     20 6 7 9
    21     21 6 14 12
    22     22 6 14 15
    23     23 7 6 14
    24     24 7 9 10
    25     25 7 9 11
    26     26 8 7 9
    27     27 9 11 12
    28     28 9 11 16
    29     29 10 9 11
    30     30 11 12 13
    31     31 11 12 14
    32     32 11 16 17
    33     33 12 11 16
    34     34 12 14 15
    35     35 13 12 14
    36     36 16 17 18
    37     37 16 17 19
    38     38 16 17 20
    39     39 17 20 21
    40     40 17 20 22
    41     41 17 20 24
    42     42 18 17 19
    43     43 18 17 20
    44     44 19 17 20
    45     45 20 22 23
    46     46 20 24 25
    47     47 20 24 26
    48     48 20 24 27
    49     49 21 20 22
    50     50 21 20 24
    51     51 22 20 24
    52     52 25 24 26
    53     53 25 24 27
    54     54 26 24 27