LAMMPS data file from AMBER conversion
#Source: aspirin.prmtop, benzene.prmtop, ethanol.prmtop, mixed_system.pdb

90 atoms 
6 atom types 
85 bonds 
85 bond types 
133 angles 
133 angle types 
163 dihedrals 
163 dihedral types 

-3.832 13.259 xlo xhi 
-3.754 13.873000000000001 ylo yhi 
-3.783 13.825 zlo zhi 

Masses 

1 12.01 
2 16.0 
3 16.0 
4 1.008 
5 1.008 
6 1.008 
Atoms

1 1 1 -0.1010524286 5.2600 4.9640 4.4650 0 0 0
2 1 1 0.5374475714 4.1970 4.6290 3.4640 0 0 0
3 1 2 -0.4595524286 3.5650 5.4700 2.8410 0 0 0
4 1 2 -0.4095524286 4.0600 3.2360 3.3750 0 0 0
5 1 1 0.1688475714 3.1020 2.6760 2.4960 0 0 0
6 1 1 -0.1066524286 1.8480 3.2780 2.3320 0 0 0
7 1 1 -0.0456524286 0.9230 2.7430 1.4350 0 0 0
8 1 1 -0.1086524286 1.2300 1.5880 0.7240 0 0 0
9 1 1 -0.0206524286 2.4600 0.9560 0.9200 0 0 0
10 1 1 -0.1609524286 3.4020 1.4830 1.8180 0 0 0
11 1 1 0.5664475703 4.6750 0.7270 1.9600 0 0 0
12 1 2 -0.4475524286 5.1460 0.0530 1.0600 0 0 0
13 1 3 -0.5607524264 5.2170 0.7750 3.1950 0 0 0
14 1 4 0.0844145712 5.3210 6.0530 4.5670 0 0 0
15 1 4 0.0844145712 6.2270 4.5930 4.1160 0 0 0
16 1 4 0.0844145712 5.0070 4.5420 5.4400 0 0 0
17 1 4 0.1237475714 1.5750 4.1810 2.8730 0 0 0
18 1 4 0.1047475714 -0.0320 3.2420 1.2840 0 0 0
19 1 4 0.1057475714 0.5130 1.1790 0.0170 0 0 0
20 1 4 0.1217475714 2.6830 0.0460 0.3640 0 0 0
21 1 5 0.4390475714 4.7070 1.3010 3.8380 0 0 0
22 2 1 -0.0907000000 1.2820 7.3120 6.4960 0 0 0
23 2 1 -0.0907000000 0.8120 8.1620 7.4980 0 0 0
24 2 1 -0.0907000000 1.3900 8.1300 8.7670 0 0 0
25 2 1 -0.0907000000 2.4360 7.2480 9.0350 0 0 0
26 2 1 -0.0907000000 2.9050 6.3980 8.0340 0 0 0
27 2 1 -0.0907000000 2.3290 6.4310 6.7640 0 0 0
28 2 4 0.0907000000 0.8320 7.3370 5.5070 0 0 0
29 2 4 0.0907000000 -0.0050 8.8490 7.2890 0 0 0
30 2 4 0.0907000000 1.0250 8.7940 9.5470 0 0 0
31 2 4 0.0907000000 2.8860 7.2230 10.0250 0 0 0
32 2 4 0.0907000000 3.7200 5.7090 8.2430 0 0 0
33 2 4 0.0907000000 2.6950 5.7690 5.9840 0 0 0
34 3 1 -0.0907000000 0.8230 3.6060 8.2760 0 0 0
35 3 1 -0.0907000000 0.8720 3.6780 6.8830 0 0 0
36 3 1 -0.0907000000 1.1370 2.5310 6.1350 0 0 0
37 3 1 -0.0907000000 1.3540 1.3130 6.7780 0 0 0
38 3 1 -0.0907000000 1.3060 1.2410 8.1700 0 0 0
39 3 1 -0.0907000000 1.0400 2.3870 8.9190 0 0 0
40 3 4 0.0907000000 0.6170 4.5000 8.8590 0 0 0
41 3 4 0.0907000000 0.7050 4.6280 6.3820 0 0 0
42 3 4 0.0907000000 1.1720 2.5870 5.0500 0 0 0
43 3 4 0.0907000000 1.5610 0.4200 6.1940 0 0 0
44 3 4 0.0907000000 1.4760 0.2920 8.6710 0 0 0
45 3 4 0.0907000000 1.0010 2.3310 10.0040 0 0 0
46 4 1 -0.1361001114 0.9000 8.7870 0.8110 0 0 0
47 4 1 0.1263998886 0.8870 8.5120 2.3010 0 0 0
48 4 3 -0.5998001092 0.8480 7.1120 2.5370 0 0 0
49 4 4 0.0423668886 0.9410 9.8620 0.6160 0 0 0
50 4 4 0.0423668886 0.0050 8.3750 0.3340 0 0 0
51 4 4 0.0423668886 1.7630 8.3080 0.3380 0 0 0
52 4 6 0.0431998886 0.0170 8.9740 2.7770 0 0 0
53 4 6 0.0431998886 1.7910 8.9110 2.7720 0 0 0
54 4 5 0.3959998886 0.0370 6.7680 2.1260 0 0 0
55 5 1 -0.1361001114 7.3340 5.1620 1.2440 0 0 0
56 5 1 0.1263998886 8.7640 5.2790 1.7320 0 0 0
57 5 3 -0.5998001092 8.9430 4.4970 2.9030 0 0 0
58 5 4 0.0423668886 7.1850 5.7510 0.3350 0 0 0
59 5 4 0.0423668886 6.6340 5.5100 2.0100 0 0 0
60 5 4 0.0423668886 7.0830 4.1170 1.0340 0 0 0
61 5 6 0.0431998886 9.0160 6.3180 1.9600 0 0 0
62 5 6 0.0431998886 9.4590 4.9140 0.9690 0 0 0
63 5 5 0.3959998886 8.3300 4.8350 3.5790 0 0 0
64 6 1 -0.1361001114 5.2390 8.7470 8.8210 0 0 0
65 6 1 0.1263998886 6.2380 8.4600 7.7180 0 0 0
66 6 3 -0.5998001092 5.6200 7.7040 6.6870 0 0 0
67 6 4 0.0423668886 5.7000 9.3390 9.6170 0 0 0
68 6 4 0.0423668886 4.8570 7.8150 9.2490 0 0 0
69 6 4 0.0423668886 4.3770 9.2950 8.4270 0 0 0
70 6 6 0.0431998886 7.0940 7.8980 8.1020 0 0 0
71 6 6 0.0431998886 6.6060 9.3940 7.2820 0 0 0
72 6 5 0.3959998886 5.3070 6.8720 7.0810 0 0 0
73 7 1 -0.1361001114 4.7790 3.0150 9.3120 0 0 0
74 7 1 0.1263998886 4.6990 3.4130 7.8530 0 0 0
75 7 3 -0.5998001092 5.1690 2.3520 7.0340 0 0 0
76 7 4 0.0423668886 4.4100 3.8200 9.9540 0 0 0
77 7 4 0.0423668886 5.8110 2.7840 9.5950 0 0 0
78 7 4 0.0423668886 4.1870 2.1130 9.5000 0 0 0
79 7 6 0.0431998886 5.3020 4.3030 7.6560 0 0 0
80 7 6 0.0431998886 3.6640 3.6270 7.5710 0 0 0
81 7 5 0.3959998886 6.0920 2.1760 7.2830 0 0 0
82 8 1 -0.1361001114 5.5210 9.5270 2.1650 0 0 0
83 8 1 0.1263998886 5.7350 8.0320 2.2880 0 0 0
84 8 3 -0.5998001092 6.8710 7.6400 1.5320 0 0 0
85 8 4 0.0423668886 4.6540 9.8440 2.7520 0 0 0
86 8 4 0.0423668886 5.3630 9.8110 1.1200 0 0 0
87 8 4 0.0423668886 6.4030 10.0730 2.5140 0 0 0
88 8 6 0.0431998886 4.8640 7.4800 1.9250 0 0 0
89 8 6 0.0431998886 5.9090 7.7550 3.3320 0 0 0
90 8 5 0.3959998886 6.7040 7.8790 0.6040 0 0 0

Bonds 

1 1 1 2
2 2 2 3
3 3 2 4
4 4 4 5
5 5 5 6
6 6 5 10
7 7 6 7
8 8 7 8
9 9 8 9
10 10 9 10
11 11 10 11
12 12 11 12
13 13 11 13
14 14 1 14
15 15 1 15
16 16 1 16
17 17 6 17
18 18 7 18
19 19 8 19
20 20 9 20
21 21 13 21
22 22 22 23
23 23 22 27
24 24 23 24
25 25 24 25
26 26 25 26
27 27 26 27
28 28 22 28
29 29 23 29
30 30 24 30
31 31 25 31
32 32 26 32
33 33 27 33
34 34 34 35
35 35 34 39
36 36 35 36
37 37 36 37
38 38 37 38
39 39 38 39
40 40 34 40
41 41 35 41
42 42 36 42
43 43 37 43
44 44 38 44
45 45 39 45
46 46 46 47
47 47 47 48
48 48 46 49
49 49 46 50
50 50 46 51
51 51 47 52
52 52 47 53
53 53 48 54
54 54 55 56
55 55 56 57
56 56 55 58
57 57 55 59
58 58 55 60
59 59 56 61
60 60 56 62
61 61 57 63
62 62 64 65
63 63 65 66
64 64 64 67
65 65 64 68
66 66 64 69
67 67 65 70
68 68 65 71
69 69 66 72
70 70 73 74
71 71 74 75
72 72 73 76
73 73 73 77
74 74 73 78
75 75 74 79
76 76 74 80
77 77 75 81
78 78 82 83
79 79 83 84
80 80 82 85
81 81 82 86
82 82 82 87
83 83 83 88
84 84 83 89
85 85 84 90

Angles 

1 1 1 2 3
2 2 1 2 4
3 3 2 4 5
4 4 3 2 4
5 5 4 5 6
6 6 4 5 10
7 7 5 6 7
8 8 5 10 9
9 9 5 10 11
10 10 6 5 10
11 11 6 7 8
12 12 7 8 9
13 13 8 9 10
14 14 9 10 11
15 15 10 11 12
16 16 10 11 13
17 17 12 11 13
18 18 2 1 14
19 19 2 1 15
20 20 2 1 16
21 21 5 6 17
22 22 6 7 18
23 23 7 6 17
24 24 7 8 19
25 25 8 7 18
26 26 8 9 20
27 27 9 8 19
28 28 10 9 20
29 29 11 13 21
30 30 14 1 15
31 31 14 1 16
32 32 15 1 16
33 33 22 23 24
34 34 22 27 26
35 35 23 22 27
36 36 23 24 25
37 37 24 25 26
38 38 25 26 27
39 39 22 23 29
40 40 22 27 33
41 41 23 22 28
42 42 23 24 30
43 43 24 23 29
44 44 24 25 31
45 45 25 24 30
46 46 25 26 32
47 47 26 25 31
48 48 26 27 33
49 49 27 22 28
50 50 27 26 32
51 51 34 35 36
52 52 34 39 38
53 53 35 34 39
54 54 35 36 37
55 55 36 37 38
56 56 37 38 39
57 57 34 35 41
58 58 34 39 45
59 59 35 34 40
60 60 35 36 42
61 61 36 35 41
62 62 36 37 43
63 63 37 36 42
64 64 37 38 44
65 65 38 37 43
66 66 38 39 45
67 67 39 34 40
68 68 39 38 44
69 69 46 47 48
70 70 46 47 52
71 71 46 47 53
72 72 47 46 49
73 73 47 46 50
74 74 47 46 51
75 75 47 48 54
76 76 48 47 52
77 77 48 47 53
78 78 49 46 50
79 79 49 46 51
80 80 50 46 51
81 81 52 47 53
82 82 55 56 57
83 83 55 56 61
84 84 55 56 62
85 85 56 55 58
86 86 56 55 59
87 87 56 55 60
88 88 56 57 63
89 89 57 56 61
90 90 57 56 62
91 91 58 55 59
92 92 58 55 60
93 93 59 55 60
94 94 61 56 62
95 95 64 65 66
96 96 64 65 70
97 97 64 65 71
98 98 65 64 67
99 99 65 64 68
100 100 65 64 69
101 101 65 66 72
102 102 66 65 70
103 103 66 65 71
104 104 67 64 68
105 105 67 64 69
106 106 68 64 69
107 107 70 65 71
108 108 73 74 75
109 109 73 74 79
110 110 73 74 80
111 111 74 73 76
112 112 74 73 77
113 113 74 73 78
114 114 74 75 81
115 115 75 74 79
116 116 75 74 80
117 117 76 73 77
118 118 76 73 78
119 119 77 73 78
120 120 79 74 80
121 121 82 83 84
122 122 82 83 88
123 123 82 83 89
124 124 83 82 85
125 125 83 82 86
126 126 83 82 87
127 127 83 84 90
128 128 84 83 88
129 129 84 83 89
130 130 85 82 86
131 131 85 82 87
132 132 86 82 87
133 133 88 83 89

Dihedrals 

1 1 1 2 4 5
2 2 1 2 4 5
3 3 1 2 4 5
4 4 2 4 5 6
5 5 2 4 5 6
6 6 2 4 5 6
7 7 2 4 5 10
8 8 2 4 5 10
9 9 2 4 5 10
10 10 3 2 4 5
11 11 3 2 4 5
12 12 3 2 4 5
13 13 4 5 6 7
14 14 4 5 10 9
15 15 4 5 10 11
16 16 5 6 7 8
17 17 5 10 9 8
18 18 5 10 11 12
19 19 5 10 11 13
20 20 6 5 10 9
21 21 6 5 10 11
22 22 6 7 8 9
23 23 7 6 5 10
24 24 7 8 9 10
25 25 8 9 10 11
26 26 9 10 11 12
27 27 9 10 11 13
28 28 14 1 2 3
29 29 14 1 2 3
30 30 15 1 2 3
31 31 15 1 2 3
32 32 16 1 2 3
33 33 16 1 2 3
34 34 14 1 2 4
35 35 14 1 2 4
36 36 15 1 2 4
37 37 15 1 2 4
38 38 16 1 2 4
39 39 16 1 2 4
40 40 4 5 6 17
41 41 4 5 6 17
42 42 5 6 7 18
43 43 5 10 9 20
44 44 6 7 8 19
45 45 7 8 9 20
46 46 8 7 6 17
47 47 9 8 7 18
48 48 10 5 6 17
49 49 10 9 8 19
50 50 10 11 13 21
51 51 11 10 9 20
52 52 12 11 13 21
53 53 17 6 7 18
54 54 18 7 8 19
55 55 19 8 9 20
56 56 22 23 24 25
57 57 22 27 26 25
58 58 23 22 27 26
59 59 23 24 25 26
60 60 27 22 23 24
61 61 24 25 26 27
62 62 22 23 24 30
63 63 22 27 26 32
64 64 23 22 27 33
65 65 23 24 25 31
66 66 28 22 23 24
67 67 24 25 26 32
68 68 25 24 23 29
69 69 25 26 27 33
70 70 26 25 24 30
71 71 28 22 27 26
72 72 27 22 23 29
73 73 27 26 25 31
74 74 28 22 23 29
75 75 28 22 27 33
76 76 29 23 24 30
77 77 30 24 25 31
78 78 31 25 26 32
79 79 32 26 27 33
80 80 34 35 36 37
81 81 34 39 38 37
82 82 35 34 39 38
83 83 35 36 37 38
84 84 39 34 35 36
85 85 36 37 38 39
86 86 34 35 36 42
87 87 34 39 38 44
88 88 35 34 39 45
89 89 35 36 37 43
90 90 40 34 35 36
91 91 36 37 38 44
92 92 37 36 35 41
93 93 37 38 39 45
94 94 38 37 36 42
95 95 40 34 39 38
96 96 39 34 35 41
97 97 39 38 37 43
98 98 40 34 35 41
99 99 40 34 39 45
100 100 41 35 36 42
101 101 42 36 37 43
102 102 43 37 38 44
103 103 44 38 39 45
104 104 46 47 48 54
105 105 49 46 47 48
106 106 50 46 47 48
107 107 51 46 47 48
108 108 49 46 47 52
109 109 49 46 47 53
110 110 50 46 47 52
111 111 50 46 47 53
112 112 51 46 47 52
113 113 51 46 47 53
114 114 52 47 48 54
115 115 53 47 48 54
116 116 55 56 57 63
117 117 58 55 56 57
118 118 59 55 56 57
119 119 60 55 56 57
120 120 58 55 56 61
121 121 58 55 56 62
122 122 59 55 56 61
123 123 59 55 56 62
124 124 60 55 56 61
125 125 60 55 56 62
126 126 61 56 57 63
127 127 62 56 57 63
128 128 64 65 66 72
129 129 67 64 65 66
130 130 68 64 65 66
131 131 69 64 65 66
132 132 67 64 65 70
133 133 67 64 65 71
134 134 68 64 65 70
135 135 68 64 65 71
136 136 69 64 65 70
137 137 69 64 65 71
138 138 70 65 66 72
139 139 71 65 66 72
140 140 73 74 75 81
141 141 76 73 74 75
142 142 77 73 74 75
143 143 78 73 74 75
144 144 76 73 74 79
145 145 76 73 74 80
146 146 77 73 74 79
147 147 77 73 74 80
148 148 78 73 74 79
149 149 78 73 74 80
150 150 79 74 75 81
151 151 80 74 75 81
152 152 82 83 84 90
153 153 85 82 83 84
154 154 86 82 83 84
155 155 87 82 83 84
156 156 85 82 83 88
157 157 85 82 83 89
158 158 86 82 83 88
159 159 86 82 83 89
160 160 87 82 83 88
161 161 87 82 83 89
162 162 88 83 84 90
163 163 89 83 84 90
