LAMMPS data file via write_data, version 22 Jul 2025, timestep = 0, units = real

42 atoms
6 atom types
41 bonds
41 bond types
63 angles
63 angle types
91 dihedrals
91 dihedral types

-3.8009999999999997 10.3 xlo xhi
-3.766 15.571000000000002 ylo yhi
-3.855 14.969999999999999 zlo zhi

Masses

1 12.01
2 16
3 16
4 1.008
5 1.008
6 1.008

Pair Coeffs # lj/cut/coul/long

1 0.1078 3.39771
2 0.0726 3.1561
3 0.093 3.24287
4 0.0208 2.60018
5 0.0047 0.537925
6 0.0208 2.422

Bond Coeffs # harmonic

1 228.89 1.5354
2 282.27 1.4273
3 282.27 1.4273
4 282.27 1.4273
5 228.89 1.5354
6 228.89 1.5354
7 228.89 1.5354
8 228.89 1.5354
9 228.89 1.5354
10 228.89 1.5354
11 228.89 1.5354
12 282.27 1.4273
13 285.15 1.4242
14 345.25 1.0962
15 345.25 1.0962
16 345.25 1.0962
17 345.25 1.0962
18 345.25 1.0962
19 345.25 1.0962
20 345.25 1.0962
21 535.51 0.9725
22 228.89 1.5354
23 228.89 1.5354
24 228.89 1.5354
25 228.89 1.5354
26 228.89 1.5354
27 228.89 1.5354
28 345.25 1.0962
29 345.25 1.0962
30 345.25 1.0962
31 345.25 1.0962
32 345.25 1.0962
33 345.25 1.0962
34 228.89 1.5354
35 285.15 1.4242
36 345.25 1.0962
37 345.25 1.0962
38 345.25 1.0962
39 344.22 1.0969
40 344.22 1.0969
41 535.51 0.9725

Angle Coeffs # harmonic

1 77.44 107.62
2 77.44 107.62
3 88.33 113.6
4 98.44 107.89
5 77.44 107.62
6 77.44 107.62
7 59.87 112.63
8 59.87 112.63
9 59.87 112.63
10 59.87 112.63
11 59.87 112.63
12 59.87 112.63
13 59.87 112.63
14 59.87 112.63
15 77.44 107.62
16 76.79 109.66
17 97.11 111.11
18 43.27 109.68
19 43.27 109.68
20 43.27 109.68
21 43.27 109.68
22 43.27 109.68
23 43.27 109.68
24 43.27 109.68
25 43.27 109.68
26 43.27 109.68
27 43.27 109.68
28 43.27 109.68
29 65.13 107.39
30 35.8 107.73
31 35.8 107.73
32 35.8 107.73
33 59.87 112.63
34 59.87 112.63
35 59.87 112.63
36 59.87 112.63
37 59.87 112.63
38 59.87 112.63
39 43.27 109.68
40 43.27 109.68
41 43.27 109.68
42 43.27 109.68
43 43.27 109.68
44 43.27 109.68
45 43.27 109.68
46 43.27 109.68
47 43.27 109.68
48 43.27 109.68
49 43.27 109.68
50 43.27 109.68
51 76.79 109.66
52 43.28 109.59
53 43.28 109.59
54 43.27 109.68
55 43.27 109.68
56 43.27 109.68
57 65.13 107.39
58 56.29 110.38
59 56.29 110.38
60 35.8 107.73
61 35.8 107.73
62 35.8 107.73
63 35.64 108.55

Dihedral Coeffs # fourier

1 1 0.88 1 180
2 1 0.08 2 0
3 1 0.75 3 0
4 1 0.88 1 180
5 1 0.08 2 0
6 1 0.75 3 0
7 1 0.88 1 180
8 1 0.08 2 0
9 1 0.75 3 0
10 1 0.46 1 180
11 1 0.85 2 0
12 1 0.85 3 0
13 1 0.1556 3 0
14 1 0.1556 3 0
15 1 0.1556 3 0
16 1 0.52 3 0
17 1 0.52 3 0
18 1 0.1556 3 0
19 1 0.18 3 0
20 1 0.52 3 0
21 1 0.52 3 0
22 1 0.52 3 0
23 1 0.52 3 0
24 1 0.52 3 0
25 1 0.52 3 0
26 1 0.1556 3 0
27 1 0.18 3 0
28 1 0.25 1 0
29 1 0 3 0
30 1 0.25 1 0
31 1 0 3 0
32 1 0.25 1 0
33 1 0 3 0
34 1 0.25 1 0
35 1 0 3 0
36 1 0.25 1 0
37 1 0 3 0
38 1 0.25 1 0
39 1 0 3 0
40 1 0.25 1 0
41 1 0 3 0
42 1 0.13 3 0
43 1 0.13 3 0
44 1 0.13 3 0
45 1 0.13 3 0
46 1 0.13 3 0
47 1 0.13 3 0
48 1 0.13 3 0
49 1 0.13 3 0
50 1 0.06 3 0
51 1 0.13 3 0
52 1 0.1667 3 0
53 1 0.12 3 0
54 1 0.12 3 0
55 1 0.12 3 0
56 1 0.52 3 0
57 1 0.52 3 0
58 1 0.52 3 0
59 1 0.52 3 0
60 1 0.52 3 0
61 1 0.52 3 0
62 1 0.13 3 0
63 1 0.13 3 0
64 1 0.13 3 0
65 1 0.13 3 0
66 1 0.13 3 0
67 1 0.13 3 0
68 1 0.13 3 0
69 1 0.13 3 0
70 1 0.13 3 0
71 1 0.13 3 0
72 1 0.13 3 0
73 1 0.13 3 0
74 1 0.12 3 0
75 1 0.12 3 0
76 1 0.12 3 0
77 1 0.12 3 0
78 1 0.12 3 0
79 1 0.12 3 0
80 1 0.06 3 0
81 1 0.09 3 0
82 1 0.09 3 0
83 1 0.09 3 0
84 1 0.1556 3 0
85 1 0.1556 3 0
86 1 0.1556 3 0
87 1 0.1556 3 0
88 1 0.1556 3 0
89 1 0.1556 3 0
90 1 0.123 3 0
91 1 0.123 3 0

Atoms # full

7 1 1 -0.0456524286 1.643 1.024 2.166 0 0 0
8 1 1 -0.1086524286 0.867 1.633 1.185 0 0 0
19 1 4 0.1057475714 -0.001 1.118 0.782 0 0 0
5 1 1 0.1688475714 3.062 2.986 2.269 0 0 0
9 1 1 -0.0206524286 1.204 2.906 0.721 0 0 0
10 1 1 -0.1609524286 2.313 3.59 1.246 0 0 0
11 1 1 0.5664475703 2.591 4.935 0.675 0 0 0
12 1 2 -0.4475524286 1.717 5.65 0.217 0 0 0
20 1 4 0.1217475714 0.593 3.366 -0.055 0 0 0
13 1 3 -0.5607524264 3.9 5.258 0.622 0 0 0
21 1 5 0.4390475714 4.498 4.57 0.967 0 0 0
6 1 1 -0.1066524286 2.748 1.69 2.695 0 0 0
18 1 4 0.1047475714 1.382 0.034 2.534 0 0 0
17 1 4 0.1237475714 3.334 1.185 3.46 0 0 0
1 1 1 -0.1010524286 5.643 4.382 4.54 0 0 0
2 1 1 0.5374475714 4.436 3.563 4.201 0 0 0
3 1 2 -0.4595524286 3.812 2.904 5.02 0 0 0
4 1 2 -0.4095524286 4.159 3.683 2.831 0 0 0
14 1 4 0.0844145712 5.883 4.239 5.599 0 0 0
15 1 4 0.0844145712 5.432 5.44 4.372 0 0 0
16 1 4 0.0844145712 6.5 4.054 3.948 0 0 0
34 3 1 -0.1361001114 0.858 10.172 6.397 0 0 0
35 3 1 0.1263998886 2.193 10.813 6.077 0 0 0
36 3 3 -0.5998001092 2.295 11.053 4.681 0 0 0
37 3 4 0.0423668886 0.762 9.991 7.472 0 0 0
38 3 4 0.0423668886 0.748 9.22 5.868 0 0 0
39 3 4 0.0423668886 0.034 10.815 6.072 0 0 0
40 3 6 0.0431998886 3.021 10.168 6.384 0 0 0
41 3 6 0.0431998886 2.292 11.771 6.596 0 0 0
42 3 5 0.3959998886 2.217 10.196 4.229 0 0 0
22 2 1 -0.0907 2.294 1.652 11.045 0 0 0
28 2 4 0.0907 1.69 0.757 11.17 0 0 0
27 2 1 -0.0907 3.685 1.56 11.032 0 0 0
32 2 4 0.0907 5.544 2.637 10.865 0 0 0
33 2 4 0.0907 4.166 0.591 11.146 0 0 0
23 2 1 -0.0907 1.676 2.895 10.898 0 0 0
24 2 1 -0.0907 2.451 4.043 10.737 0 0 0
29 2 4 0.0907 0.591 2.967 10.909 0 0 0
30 2 4 0.0907 1.969 5.011 10.62 0 0 0
25 2 1 -0.0907 3.842 3.951 10.726 0 0 0
26 2 1 -0.0907 4.459 2.709 10.873 0 0 0
31 2 4 0.0907 4.445 4.847 10.601 0 0 0

Velocities

7 0 0 0
8 0 0 0
19 0 0 0
5 0 0 0
9 0 0 0
10 0 0 0
11 0 0 0
12 0 0 0
20 0 0 0
13 0 0 0
21 0 0 0
6 0 0 0
18 0 0 0
17 0 0 0
1 0 0 0
2 0 0 0
3 0 0 0
4 0 0 0
14 0 0 0
15 0 0 0
16 0 0 0
34 0 0 0
35 0 0 0
36 0 0 0
37 0 0 0
38 0 0 0
39 0 0 0
40 0 0 0
41 0 0 0
42 0 0 0
22 0 0 0
28 0 0 0
27 0 0 0
32 0 0 0
33 0 0 0
23 0 0 0
24 0 0 0
29 0 0 0
30 0 0 0
25 0 0 0
26 0 0 0
31 0 0 0

Bonds

1 8 7 8
2 18 7 18
3 9 8 9
4 19 8 19
5 5 5 6
6 6 5 10
7 10 9 10
8 20 9 20
9 11 10 11
10 12 11 12
11 13 11 13
12 21 13 21
13 7 6 7
14 17 6 17
15 1 1 2
16 14 1 14
17 15 1 15
18 16 1 16
19 2 2 3
20 3 2 4
21 4 4 5
22 34 34 35
23 36 34 37
24 37 34 38
25 38 34 39
26 35 35 36
27 39 35 40
28 40 35 41
29 41 36 42
30 22 22 23
31 23 22 27
32 28 22 28
33 33 27 33
34 24 23 24
35 29 23 29
36 25 24 25
37 30 24 30
38 26 25 26
39 31 25 31
40 27 26 27
41 32 26 32

Angles

1 11 6 7 8
2 22 6 7 18
3 25 8 7 18
4 12 7 8 9
5 24 7 8 19
6 27 9 8 19
7 5 4 5 6
8 6 4 5 10
9 10 6 5 10
10 13 8 9 10
11 26 8 9 20
12 28 10 9 20
13 8 5 10 9
14 9 5 10 11
15 14 9 10 11
16 15 10 11 12
17 16 10 11 13
18 17 12 11 13
19 29 11 13 21
20 7 5 6 7
21 21 5 6 17
22 23 7 6 17
23 18 2 1 14
24 19 2 1 15
25 20 2 1 16
26 30 14 1 15
27 31 14 1 16
28 32 15 1 16
29 1 1 2 3
30 2 1 2 4
31 4 3 2 4
32 3 2 4 5
33 54 35 34 37
34 55 35 34 38
35 56 35 34 39
36 60 37 34 38
37 61 37 34 39
38 62 38 34 39
39 51 34 35 36
40 52 34 35 40
41 53 34 35 41
42 58 36 35 40
43 59 36 35 41
44 63 40 35 41
45 57 35 36 42
46 35 23 22 27
47 41 23 22 28
48 49 27 22 28
49 34 22 27 26
50 40 22 27 33
51 48 26 27 33
52 33 22 23 24
53 39 22 23 29
54 43 24 23 29
55 36 23 24 25
56 42 23 24 30
57 45 25 24 30
58 37 24 25 26
59 44 24 25 31
60 47 26 25 31
61 38 25 26 27
62 46 25 26 32
63 50 27 26 32

Dihedrals

1 22 6 7 8 9
2 44 6 7 8 19
3 46 8 7 6 17
4 54 18 7 8 19
5 24 7 8 9 10
6 45 7 8 9 20
7 47 9 8 7 18
8 55 19 8 9 20
9 13 4 5 6 7
10 14 4 5 10 9
11 15 4 5 10 11
12 20 6 5 10 9
13 21 6 5 10 11
14 40 4 5 6 17
15 41 4 5 6 17
16 48 10 5 6 17
17 25 8 9 10 11
18 49 10 9 8 19
19 17 5 10 9 8
20 18 5 10 11 12
21 19 5 10 11 13
22 26 9 10 11 12
23 27 9 10 11 13
24 43 5 10 9 20
25 51 11 10 9 20
26 50 10 11 13 21
27 52 12 11 13 21
28 16 5 6 7 8
29 23 7 6 5 10
30 42 5 6 7 18
31 53 17 6 7 18
32 28 14 1 2 3
33 29 14 1 2 3
34 30 15 1 2 3
35 31 15 1 2 3
36 32 16 1 2 3
37 33 16 1 2 3
38 34 14 1 2 4
39 35 14 1 2 4
40 36 15 1 2 4
41 37 15 1 2 4
42 38 16 1 2 4
43 39 16 1 2 4
44 1 1 2 4 5
45 2 1 2 4 5
46 3 1 2 4 5
47 10 3 2 4 5
48 11 3 2 4 5
49 12 3 2 4 5
50 4 2 4 5 6
51 5 2 4 5 6
52 6 2 4 5 6
53 7 2 4 5 10
54 8 2 4 5 10
55 9 2 4 5 10
56 81 37 34 35 36
57 82 38 34 35 36
58 83 39 34 35 36
59 84 37 34 35 40
60 85 37 34 35 41
61 86 38 34 35 40
62 87 38 34 35 41
63 88 39 34 35 40
64 89 39 34 35 41
65 80 34 35 36 42
66 90 40 35 36 42
67 91 41 35 36 42
68 58 23 22 27 26
69 60 27 22 23 24
70 64 23 22 27 33
71 66 28 22 23 24
72 71 28 22 27 26
73 72 27 22 23 29
74 74 28 22 23 29
75 75 28 22 27 33
76 57 22 27 26 25
77 63 22 27 26 32
78 56 22 23 24 25
79 62 22 23 24 30
80 76 29 23 24 30
81 59 23 24 25 26
82 65 23 24 25 31
83 68 25 24 23 29
84 77 30 24 25 31
85 61 24 25 26 27
86 67 24 25 26 32
87 70 26 25 24 30
88 78 31 25 26 32
89 69 25 26 27 33
90 73 27 26 25 31
91 79 32 26 27 33
