LAMMPS data file from AMBER conversion
#Source: ethanol.prmtop, ethanol.pdb

9 atoms 
5 atom types 
8 bonds 
8 bond types 
13 angles 
13 angle types 
12 dihedrals 
12 dihedral types 

-4.313 8.075 xlo xhi 
-6.036 5.937 ylo yhi 
-6.8580000000000005 5.938 zlo zhi 

Masses 

1 12.01 
2 16.0 
3 1.008 
4 1.008 
5 1.008 
Atoms

1 1 1 -0.1361001114 1.0790 -0.0540 -0.0450 0 0 0
2 1 1 0.1263998886 2.5940 -0.0530 -0.0520 0 0 0
3 1 2 -0.5998001092 3.0750 0.9080 -0.9800 0 0 0
4 1 3 0.0423668886 0.6950 -0.7830 0.6740 0 0 0
5 1 3 0.0423668886 0.6870 -0.2970 -1.0380 0 0 0
6 1 3 0.0423668886 0.6940 0.9370 0.2160 0 0 0
7 1 4 0.0431998886 2.9850 -1.0360 -0.3290 0 0 0
8 1 4 0.0431998886 2.9810 0.2060 0.9380 0 0 0
9 1 5 0.3959998886 2.7360 0.6640 -1.8580 0 0 0

Bonds 

1 1 1 2
2 2 2 3
3 3 1 4
4 4 1 5
5 5 1 6
6 6 2 7
7 7 2 8
8 8 3 9

Angles 

1 1 1 2 3
2 2 1 2 7
3 3 1 2 8
4 4 2 1 4
5 5 2 1 5
6 6 2 1 6
7 7 2 3 9
8 8 3 2 7
9 9 3 2 8
10 10 4 1 5
11 11 4 1 6
12 12 5 1 6
13 13 7 2 8

Dihedrals 

1 1 1 2 3 9
2 2 4 1 2 3
3 3 5 1 2 3
4 4 6 1 2 3
5 5 4 1 2 7
6 6 4 1 2 8
7 7 5 1 2 7
8 8 5 1 2 8
9 9 6 1 2 7
10 10 6 1 2 8
11 11 7 2 3 9
12 12 8 2 3 9
